
Host: ubuntu

Timers On : Fri Aug 12 04:47:48 2022
Timers Off: Fri Aug 12 04:47:50 2022

Wall Time:        1.51 seconds

                                                       Time (seconds)
Module                                       User      System        Wall        Calls

--------------------------------------------------------------------------------------

**************************************************************************************

Host: ubuntu

Timers On : Sun Aug 14 21:54:20 2022
Timers Off: Sun Aug 14 21:54:23 2022

Wall Time:        2.67 seconds

                                                       Time (seconds)
Module                                       User      System        Wall        Calls

--------------------------------------------------------------------------------------

**************************************************************************************

Host: ubuntu

Timers On : Sun Aug 14 21:55:23 2022
Timers Off: Sun Aug 14 21:55:25 2022

Wall Time:        2.43 seconds

                                                       Time (seconds)
Module                                       User      System        Wall        Calls

--------------------------------------------------------------------------------------

**************************************************************************************

Host: ubuntu

Timers On : Sun Aug 14 21:56:04 2022
Timers Off: Tue Aug 16 14:37:25 2022

Wall Time:   146481.43 seconds

                                                       Time (seconds)
Module                                       User      System        Wall        Calls

--------------------------------------------------------------------------------------

**************************************************************************************

Host: ubuntu

Timers On : Tue Aug 16 22:08:03 2022
Timers Off: Wed Aug 17 09:28:33 2022

Wall Time:    40829.78 seconds

                                                       Time (seconds)
Module                                       User      System        Wall        Calls

--------------------------------------------------------------------------------------

**************************************************************************************

Host: ubuntu

Timers On : Mon Aug 15 21:14:18 2022
Timers Off: Sat Aug 20 10:48:54 2022

Wall Time:   394476.01 seconds

                                                       Time (seconds)
Module                                       User      System        Wall        Calls

--------------------------------------------------------------------------------------

**************************************************************************************

Host: ubuntu

Timers On : Sat Aug 20 22:51:37 2022
Timers Off: Sat Aug 20 22:51:39 2022

Wall Time:        2.54 seconds

                                                       Time (seconds)
Module                                       User      System        Wall        Calls

--------------------------------------------------------------------------------------

**************************************************************************************

Host: ubuntu

Timers On : Sat Aug 20 22:53:24 2022
Timers Off: Sat Aug 20 22:53:26 2022

Wall Time:        1.83 seconds

                                                       Time (seconds)
Module                                       User      System        Wall        Calls

--------------------------------------------------------------------------------------

**************************************************************************************

Host: ubuntu

Timers On : Sat Aug 20 22:45:52 2022
Timers Off: Thu Aug 25 16:07:18 2022

Wall Time:   408086.30 seconds

                                                       Time (seconds)
Module                                       User      System        Wall        Calls

--------------------------------------------------------------------------------------

**************************************************************************************

Host: ubuntu

Timers On : Sun Aug 28 21:56:35 2022
Timers Off: Sun Sep  4 14:39:55 2022

Wall Time:   578599.79 seconds

                                                       Time (seconds)
Module                                       User      System        Wall        Calls

--------------------------------------------------------------------------------------

**************************************************************************************

Host: ubuntu

Timers On : Thu Sep  8 23:33:07 2022
Timers Off: Thu Sep  8 23:33:15 2022

Wall Time:        8.07 seconds

                                                       Time (seconds)
Module                                       User      System        Wall        Calls

--------------------------------------------------------------------------------------

**************************************************************************************

Host: ubuntu

Timers On : Fri Sep  9 00:14:48 2022
Timers Off: Fri Sep  9 00:14:58 2022

Wall Time:        9.85 seconds

                                                       Time (seconds)
Module                                       User      System        Wall        Calls

--------------------------------------------------------------------------------------

**************************************************************************************

Host: ubuntu

Timers On : Fri Sep  9 00:15:38 2022
Timers Off: Fri Sep  9 00:15:41 2022

Wall Time:        3.07 seconds

                                                       Time (seconds)
Module                                       User      System        Wall        Calls

--------------------------------------------------------------------------------------

**************************************************************************************

Host: ubuntu

Timers On : Sat Sep 10 09:55:28 2022
Timers Off: Sat Sep 10 09:55:36 2022

Wall Time:        7.83 seconds

                                                       Time (seconds)
Module                                       User      System        Wall        Calls

--------------------------------------------------------------------------------------

**************************************************************************************

Host: ubuntu

Timers On : Sat Sep 10 09:56:25 2022
Timers Off: Sat Sep 10 09:57:24 2022

Wall Time:       58.63 seconds

                                                       Time (seconds)
Module                                       User      System        Wall        Calls

--------------------------------------------------------------------------------------

**************************************************************************************

Host: ubuntu

Timers On : Sat Sep 10 09:58:08 2022
Timers Off: Sat Sep 10 09:58:11 2022

Wall Time:        3.14 seconds

                                                       Time (seconds)
Module                                       User      System        Wall        Calls

--------------------------------------------------------------------------------------

**************************************************************************************

Host: ubuntu

Timers On : Mon Sep 19 07:24:05 2022
Timers Off: Wed Sep 21 12:10:47 2022

Wall Time:   190002.04 seconds

                                                       Time (seconds)
Module                                       User      System        Wall        Calls

--------------------------------------------------------------------------------------

**************************************************************************************

Host: ubuntu

Timers On : Thu Sep 22 22:57:43 2022
Timers Off: Thu Sep 22 23:07:59 2022

Wall Time:      615.78 seconds

                                                       Time (seconds)
Module                                       User      System        Wall        Calls

--------------------------------------------------------------------------------------

**************************************************************************************

Host: ubuntu

Timers On : Thu Sep 22 23:10:24 2022
Timers Off: Thu Sep 22 23:21:04 2022

Wall Time:      639.97 seconds

                                                       Time (seconds)
Module                                       User      System        Wall        Calls

--------------------------------------------------------------------------------------

**************************************************************************************

Host: ubuntu

Timers On : Thu Sep 22 23:36:40 2022
Timers Off: Thu Sep 22 23:47:39 2022

Wall Time:      658.48 seconds

                                                       Time (seconds)
Module                                       User      System        Wall        Calls

--------------------------------------------------------------------------------------

**************************************************************************************

Host: ubuntu

Timers On : Sat Sep 24 14:55:06 2022
Timers Off: Sat Sep 24 14:55:10 2022

Wall Time:        4.05 seconds

                                                       Time (seconds)
Module                                       User      System        Wall        Calls

--------------------------------------------------------------------------------------

**************************************************************************************

Host: ubuntu

Timers On : Sat Sep 24 14:55:35 2022
Timers Off: Sat Sep 24 14:57:20 2022

Wall Time:      104.94 seconds

                                                       Time (seconds)
Module                                       User      System        Wall        Calls

--------------------------------------------------------------------------------------

**************************************************************************************

Host: ubuntu

Timers On : Fri Sep 30 02:42:00 2022
Timers Off: Fri Sep 30 02:42:02 2022

Wall Time:        1.93 seconds

                                                       Time (seconds)
Module                                       User      System        Wall        Calls

--------------------------------------------------------------------------------------

**************************************************************************************

Host: ubuntu

Timers On : Fri Sep 30 02:42:37 2022
Timers Off: Fri Sep 30 02:42:39 2022

Wall Time:        1.80 seconds

                                                       Time (seconds)
Module                                       User      System        Wall        Calls

--------------------------------------------------------------------------------------

**************************************************************************************

Host: ubuntu

Timers On : Fri Sep 30 02:56:26 2022
Timers Off: Fri Sep 30 02:58:16 2022

Wall Time:      110.39 seconds

                                                       Time (seconds)
Module                                       User      System        Wall        Calls

--------------------------------------------------------------------------------------

**************************************************************************************

Host: ubuntu

Timers On : Fri Sep 30 03:12:52 2022
Timers Off: Fri Sep 30 03:12:54 2022

Wall Time:        1.68 seconds

                                                       Time (seconds)
Module                                       User      System        Wall        Calls

--------------------------------------------------------------------------------------

**************************************************************************************

Host: ubuntu

Timers On : Fri Sep 30 03:14:54 2022
Timers Off: Fri Sep 30 03:14:55 2022

Wall Time:        1.71 seconds

                                                       Time (seconds)
Module                                       User      System        Wall        Calls

--------------------------------------------------------------------------------------

**************************************************************************************

Host: ubuntu

Timers On : Sat Oct  8 12:18:52 2022
Timers Off: Sat Oct  8 12:18:56 2022

Wall Time:        4.11 seconds

                                                       Time (seconds)
Module                                       User      System        Wall        Calls

--------------------------------------------------------------------------------------

**************************************************************************************

Host: ubuntu

Timers On : Sun Oct  9 01:00:58 2022
Timers Off: Sun Oct  9 01:01:03 2022

Wall Time:        5.40 seconds

                                                       Time (seconds)
Module                                       User      System        Wall        Calls

--------------------------------------------------------------------------------------

**************************************************************************************

Host: ubuntu

Timers On : Sun Oct  9 01:54:22 2022
Timers Off: Sun Oct  9 01:54:24 2022

Wall Time:        2.18 seconds

                                                       Time (seconds)
Module                                       User      System        Wall        Calls

--------------------------------------------------------------------------------------

**************************************************************************************

Host: ubuntu

Timers On : Sun Oct  9 02:03:23 2022
Timers Off: Sun Oct  9 02:03:26 2022

Wall Time:        3.39 seconds

                                                       Time (seconds)
Module                                       User      System        Wall        Calls
Total PK formation time             :      0.100u      0.000s      0.066w      8 calls
Libint2ERI::Libint2ERI              :      0.033u      0.000s      0.024w     24 calls
HF: Form core H                     :      0.017u      0.033s      0.018w      8 calls
HF: Form S/X                        :      0.000u      0.017s      0.008w      8 calls
HF: Guess                           :      0.317u      0.000s      0.221w      8 calls
SAD Guess                           :      0.283u      0.000s      0.207w      8 calls
HF: Form G                          :      0.000u      0.000s      0.003w     56 calls
JK: D                               :      0.000u      0.000s      0.000w     56 calls
JK: USO2AO                          :      0.000u      0.000s      0.000w     56 calls
JK: JK                              :      0.000u      0.000s      0.001w     56 calls
PK computes JK                      :      0.000u      0.000s      0.001w     56 calls
JK: AO2USO                          :      0.000u      0.000s      0.000w     56 calls
HF: Form F                          :      0.000u      0.000s      0.001w     56 calls
HF: Form D                          :      0.000u      0.000s      0.000w     56 calls
HF: DIIS                            :      0.033u      0.000s      0.041w     48 calls
DIISManager::add_entry              :      0.000u      0.000s      0.008w     48 calls
DIISManager::extrapolate            :      0.017u      0.000s      0.003w     48 calls
bMatrix setup                       :      0.017u      0.000s      0.001w     48 calls
bMatrix pseudoinverse               :      0.000u      0.000s      0.001w     48 calls
New vector                          :      0.000u      0.000s      0.001w     48 calls
HF: Form C                          :      0.017u      0.000s      0.010w     48 calls
CIWave: CIvect write                :      0.000u      0.000s      0.001w     46 calls
CIWave: CIvect read                 :      0.000u      0.000s      0.001w    209 calls
CIWave: s2                          :      0.000u      0.000s      0.000w      6 calls
CIWave: s3                          :      0.000u      0.000s      0.002w      6 calls

--------------------------------------------------------------------------------------
Total PK formation time             :      0.100u      0.000s      0.066w      8 calls
| Libint2ERI::Libint2ERI            :      0.033u      0.000s      0.023w     16 calls
HF: Form core H                     :      0.017u      0.033s      0.018w      8 calls
HF: Form S/X                        :      0.000u      0.017s      0.008w      8 calls
HF: Guess                           :      0.317u      0.000s      0.221w      8 calls
| SAD Guess                         :      0.283u      0.000s      0.207w      8 calls
HF: Form G                          :      0.000u      0.000s      0.003w     56 calls
| JK: D                             :      0.000u      0.000s      0.000w     56 calls
| JK: USO2AO                        :      0.000u      0.000s      0.000w     56 calls
| JK: JK                            :      0.000u      0.000s      0.001w     56 calls
| | PK computes JK                  :      0.000u      0.000s      0.001w     56 calls
| JK: AO2USO                        :      0.000u      0.000s      0.000w     56 calls
HF: Form F                          :      0.000u      0.000s      0.001w     56 calls
HF: Form D                          :      0.000u      0.000s      0.000w     56 calls
HF: DIIS                            :      0.033u      0.000s      0.041w     48 calls
| DIISManager::add_entry            :      0.000u      0.000s      0.008w     48 calls
| DIISManager::extrapolate          :      0.017u      0.000s      0.003w     48 calls
| | bMatrix setup                   :      0.017u      0.000s      0.001w     48 calls
| | bMatrix pseudoinverse           :      0.000u      0.000s      0.001w     48 calls
| | New vector                      :      0.000u      0.000s      0.001w     48 calls
HF: Form C                          :      0.017u      0.000s      0.010w     48 calls
Libint2ERI::Libint2ERI              :      0.000u      0.000s      0.002w      8 calls
CIWave: CIvect write                :      0.000u      0.000s      0.001w     46 calls
CIWave: CIvect read                 :      0.000u      0.000s      0.001w    209 calls
CIWave: s2                          :      0.000u      0.000s      0.000w      6 calls
CIWave: s3                          :      0.000u      0.000s      0.002w      6 calls

**************************************************************************************

Host: ubuntu

Timers On : Sun Oct  9 02:05:08 2022
Timers Off: Sun Oct  9 02:05:12 2022

Wall Time:        3.19 seconds

                                                       Time (seconds)
Module                                       User      System        Wall        Calls

--------------------------------------------------------------------------------------

**************************************************************************************

Host: ubuntu

Timers On : Sun Oct  9 01:40:59 2022
Timers Off: Sun Oct  9 12:49:04 2022

Wall Time:    40084.45 seconds

                                                       Time (seconds)
Module                                       User      System        Wall        Calls

--------------------------------------------------------------------------------------

**************************************************************************************

Host: ubuntu

Timers On : Sun Oct  9 02:05:26 2022
Timers Off: Sun Oct  9 13:52:25 2022

Wall Time:    42418.33 seconds

                                                       Time (seconds)
Module                                       User      System        Wall        Calls

--------------------------------------------------------------------------------------

**************************************************************************************

Host: ubuntu

Timers On : Sun Oct  9 01:40:31 2022
Timers Off: Mon Oct 10 16:19:52 2022

Wall Time:   139161.12 seconds

                                                       Time (seconds)
Module                                       User      System        Wall        Calls

--------------------------------------------------------------------------------------

**************************************************************************************

Host: ubuntu

Timers On : Mon Oct 10 12:40:18 2022
Timers Off: Tue Oct 11 11:36:13 2022

Wall Time:    82555.42 seconds

                                                       Time (seconds)
Module                                       User      System        Wall        Calls

--------------------------------------------------------------------------------------

**************************************************************************************

Host: ubuntu

Timers On : Wed Oct 12 10:18:00 2022
Timers Off: Wed Oct 12 10:18:05 2022

Wall Time:        5.62 seconds

                                                       Time (seconds)
Module                                       User      System        Wall        Calls

--------------------------------------------------------------------------------------

**************************************************************************************

Host: ubuntu

Timers On : Sat Dec 10 08:21:13 2022
Timers Off: Sat Dec 10 08:21:20 2022

Wall Time:        7.37 seconds

                                                       Time (seconds)
Module                                       User      System        Wall        Calls
Total PK formation time             :      0.067u      0.050s      0.090w     12 calls
Libint2ERI::Libint2ERI              :      0.017u      0.033s      0.036w     36 calls
HF: Form core H                     :      0.033u      0.017s      0.017w     12 calls
HF: Form S/X                        :      0.000u      0.000s      0.013w     12 calls
HF: Guess                           :      0.467u      0.067s      0.347w     12 calls
SAD Guess                           :      0.433u      0.067s      0.327w     12 calls
HF: Form G                          :      0.050u      0.000s      0.029w     90 calls
JK: D                               :      0.000u      0.000s      0.003w     90 calls
JK: USO2AO                          :      0.017u      0.000s      0.003w     90 calls
JK: JK                              :      0.017u      0.000s      0.008w     90 calls
PK computes JK                      :      0.000u      0.000s      0.003w     90 calls
JK: AO2USO                          :      0.017u      0.000s      0.002w     90 calls
HF: Form F                          :      0.000u      0.000s      0.003w     90 calls
HF: Form D                          :      0.000u      0.000s      0.003w     90 calls
HF: DIIS                            :      0.167u      0.000s      0.112w     78 calls
DIISManager::add_entry              :      0.017u      0.000s      0.024w     78 calls
DIISManager::extrapolate            :      0.100u      0.000s      0.039w     78 calls
bMatrix setup                       :      0.050u      0.000s      0.015w     78 calls
bMatrix pseudoinverse               :      0.000u      0.000s      0.004w     78 calls
New vector                          :      0.000u      0.000s      0.011w     78 calls
HF: Form C                          :      0.033u      0.000s      0.019w     78 calls
CIWave: CIvect write                :      0.000u      0.000s      0.007w     84 calls
CIWave: CIvect read                 :      0.033u      0.000s      0.013w    234 calls
CIWave: s2                          :      0.000u      0.000s      0.001w     12 calls
CIWave: s3                          :      0.000u      0.000s      0.001w     12 calls

--------------------------------------------------------------------------------------
Total PK formation time             :      0.067u      0.050s      0.090w     12 calls
| Libint2ERI::Libint2ERI            :      0.017u      0.033s      0.034w     24 calls
HF: Form core H                     :      0.033u      0.017s      0.017w     12 calls
HF: Form S/X                        :      0.000u      0.000s      0.013w     12 calls
HF: Guess                           :      0.467u      0.067s      0.347w     12 calls
| SAD Guess                         :      0.433u      0.067s      0.327w     12 calls
HF: Form G                          :      0.050u      0.000s      0.029w     90 calls
| JK: D                             :      0.000u      0.000s      0.003w     90 calls
| JK: USO2AO                        :      0.017u      0.000s      0.003w     90 calls
| JK: JK                            :      0.017u      0.000s      0.008w     90 calls
| | PK computes JK                  :      0.000u      0.000s      0.003w     90 calls
| JK: AO2USO                        :      0.017u      0.000s      0.002w     90 calls
HF: Form F                          :      0.000u      0.000s      0.003w     90 calls
HF: Form D                          :      0.000u      0.000s      0.003w     90 calls
HF: DIIS                            :      0.167u      0.000s      0.112w     78 calls
| DIISManager::add_entry            :      0.017u      0.000s      0.024w     78 calls
| DIISManager::extrapolate          :      0.100u      0.000s      0.039w     78 calls
| | bMatrix setup                   :      0.050u      0.000s      0.015w     78 calls
| | bMatrix pseudoinverse           :      0.000u      0.000s      0.004w     78 calls
| | New vector                      :      0.000u      0.000s      0.011w     78 calls
HF: Form C                          :      0.033u      0.000s      0.019w     78 calls
Libint2ERI::Libint2ERI              :      0.000u      0.000s      0.002w     12 calls
CIWave: CIvect write                :      0.000u      0.000s      0.007w     84 calls
CIWave: CIvect read                 :      0.033u      0.000s      0.013w    234 calls
CIWave: s2                          :      0.000u      0.000s      0.001w     12 calls
CIWave: s3                          :      0.000u      0.000s      0.001w     12 calls

**************************************************************************************

Host: ubuntu

Timers On : Sat Dec 10 08:24:16 2022
Timers Off: Sat Dec 10 08:24:21 2022

Wall Time:        4.08 seconds

                                                       Time (seconds)
Module                                       User      System        Wall        Calls
Total PK formation time             :      0.100u      0.000s      0.056w     12 calls
Libint2ERI::Libint2ERI              :      0.000u      0.000s      0.009w     36 calls
HF: Form core H                     :      0.000u      0.000s      0.011w     12 calls
HF: Form S/X                        :      0.000u      0.000s      0.003w     12 calls
HF: Guess                           :      0.433u      0.067s      0.292w     12 calls
SAD Guess                           :      0.417u      0.050s      0.273w     12 calls
HF: Form G                          :      0.067u      0.000s      0.027w     90 calls
JK: D                               :      0.000u      0.000s      0.003w     90 calls
JK: USO2AO                          :      0.000u      0.000s      0.002w     90 calls
JK: JK                              :      0.017u      0.000s      0.007w     90 calls
PK computes JK                      :      0.017u      0.000s      0.003w     90 calls
JK: AO2USO                          :      0.017u      0.000s      0.002w     90 calls
HF: Form F                          :      0.000u      0.000s      0.003w     90 calls
HF: Form D                          :      0.000u      0.000s      0.003w     90 calls
HF: DIIS                            :      0.200u      0.033s      0.112w     78 calls
DIISManager::add_entry              :      0.117u      0.017s      0.031w     78 calls
DIISManager::extrapolate            :      0.000u      0.000s      0.036w     78 calls
bMatrix setup                       :      0.000u      0.000s      0.014w     78 calls
bMatrix pseudoinverse               :      0.000u      0.000s      0.004w     78 calls
New vector                          :      0.000u      0.000s      0.010w     78 calls
HF: Form C                          :      0.033u      0.017s      0.017w     78 calls
CIWave: CIvect write                :      0.017u      0.000s      0.007w     84 calls
CIWave: CIvect read                 :      0.033u      0.000s      0.012w    234 calls
CIWave: s2                          :      0.000u      0.000s      0.000w     12 calls
CIWave: s3                          :      0.000u      0.000s      0.001w     12 calls

--------------------------------------------------------------------------------------
Total PK formation time             :      0.100u      0.000s      0.056w     12 calls
| Libint2ERI::Libint2ERI            :      0.000u      0.000s      0.007w     24 calls
HF: Form core H                     :      0.000u      0.000s      0.011w     12 calls
HF: Form S/X                        :      0.000u      0.000s      0.003w     12 calls
HF: Guess                           :      0.433u      0.067s      0.292w     12 calls
| SAD Guess                         :      0.417u      0.050s      0.273w     12 calls
HF: Form G                          :      0.067u      0.000s      0.027w     90 calls
| JK: D                             :      0.000u      0.000s      0.003w     90 calls
| JK: USO2AO                        :      0.000u      0.000s      0.002w     90 calls
| JK: JK                            :      0.017u      0.000s      0.007w     90 calls
| | PK computes JK                  :      0.017u      0.000s      0.003w     90 calls
| JK: AO2USO                        :      0.017u      0.000s      0.002w     90 calls
HF: Form F                          :      0.000u      0.000s      0.003w     90 calls
HF: Form D                          :      0.000u      0.000s      0.003w     90 calls
HF: DIIS                            :      0.200u      0.033s      0.112w     78 calls
| DIISManager::add_entry            :      0.117u      0.017s      0.031w     78 calls
| DIISManager::extrapolate          :      0.000u      0.000s      0.036w     78 calls
| | bMatrix setup                   :      0.000u      0.000s      0.014w     78 calls
| | bMatrix pseudoinverse           :      0.000u      0.000s      0.004w     78 calls
| | New vector                      :      0.000u      0.000s      0.010w     78 calls
HF: Form C                          :      0.033u      0.017s      0.017w     78 calls
Libint2ERI::Libint2ERI              :      0.000u      0.000s      0.002w     12 calls
CIWave: CIvect write                :      0.017u      0.000s      0.007w     84 calls
CIWave: CIvect read                 :      0.033u      0.000s      0.012w    234 calls
CIWave: s2                          :      0.000u      0.000s      0.000w     12 calls
CIWave: s3                          :      0.000u      0.000s      0.001w     12 calls

**************************************************************************************
