
Host: ubuntu

Timers On : Fri Aug 12 04:47:48 2022
Timers Off: Fri Aug 12 04:47:50 2022

Wall Time:        1.51 seconds

                                                       Time (seconds)
Module                                       User      System        Wall        Calls

--------------------------------------------------------------------------------------

**************************************************************************************
